# vtk DataFile Version 2.0
Generated by Rust
ASCII
DATASET UNSTRUCTURED_GRID
POINTS 22491 float
0 0 0
0.05 0 0
0.1 0 0
0.15000000000000002 0 0
0.2 0 0
0.25 0 0
0.30000000000000004 0 0
0.35000000000000003 0 0
0.4 0 0
0.45 0 0
0.5 0 0
0.55 0 0
0.6000000000000001 0 0
0.65 0 0
0.7000000000000001 0 0
0.75 0 0
0.8 0 0
0.8500000000000001 0 0
0.9 0 0
0.9500000000000001 0 0
1 0 0
0 0.05 0
0.05 0.05 0
0.1 0.05 0
0.15000000000000002 0.05 0
0.2 0.05 0
0.25 0.05 0
0.30000000000000004 0.05 0
0.35000000000000003 0.05 0
0.4 0.05 0
0.45 0.05 0
0.5 0.05 0
0.55 0.05 0
0.6000000000000001 0.05 0
0.65 0.05 0
0.7000000000000001 0.05 0
0.75 0.05 0
0.8 0.05 0
0.8500000000000001 0.05 0
0.9 0.05 0
0.9500000000000001 0.05 0
1 0.05 0
0 0.1 0
0.05 0.1 0
0.1 0.1 0
0.15000000000000002 0.1 0
0.2 0.1 0
0.25 0.1 0
0.30000000000000004 0.1 0
0.35000000000000003 0.1 0
0.4 0.1 0
0.45 0.1 0
0.5 0.1 0
0.55 0.1 0
0.6000000000000001 0.1 0
0.65 0.1 0
0.7000000000000001 0.1 0
0.75 0.1 0
0.8 0.1 0
0.8500000000000001 0.1 0
0.9 0.1 0
0.9500000000000001 0.1 0
1 0.1 0
0 0.15000000000000002 0
0.05 0.15000000000000002 0
0.1 0.15000000000000002 0
0.15000000000000002 0.15000000000000002 0
0.2 0.15000000000000002 0
0.25 0.15000000000000002 0
0.30000000000000004 0.15000000000000002 0
0.35000000000000003 0.15000000000000002 0
0.4 0.15000000000000002 0
0.45 0.15000000000000002 0
0.5 0.15000000000000002 0
0.55 0.15000000000000002 0
0.6000000000000001 0.15000000000000002 0
0.65 0.15000000000000002 0
0.7000000000000001 0.15000000000000002 0
0.75 0.15000000000000002 0
0.8 0.15000000000000002 0
0.8500000000000001 0.15000000000000002 0
0.9 0.15000000000000002 0
0.9500000000000001 0.15000000000000002 0
1 0.15000000000000002 0
0 0.2 0
0.05 0.2 0
0.1 0.2 0
0.15000000000000002 0.2 0
0.2 0.2 0
0.25 0.2 0
0.30000000000000004 0.2 0
0.35000000000000003 0.2 0
0.4 0.2 0
0.45 0.2 0
0.5 0.2 0
0.55 0.2 0
0.6000000000000001 0.2 0
0.65 0.2 0
0.7000000000000001 0.2 0
0.75 0.2 0
0.8 0.2 0
0.8500000000000001 0.2 0
0.9 0.2 0
0.9500000000000001 0.2 0
1 0.2 0
0 0.25 0
0.05 0.25 0
0.1 0.25 0
0.15000000000000002 0.25 0
0.2 0.25 0
0.25 0.25 0
0.30000000000000004 0.25 0
0.35000000000000003 0.25 0
0.4 0.25 0
0.45 0.25 0
0.5 0.25 0
0.55 0.25 0
0.6000000000000001 0.25 0
0.65 0.25 0
0.7000000000000001 0.25 0
0.75 0.25 0
0.8 0.25 0
0.8500000000000001 0.25 0
0.9 0.25 0
0.9500000000000001 0.25 0
1 0.25 0
0 0.30000000000000004 0
0.05 0.30000000000000004 0
0.1 0.30000000000000004 0
0.15000000000000002 0.30000000000000004 0
0.2 0.30000000000000004 0
0.25 0.30000000000000004 0
0.30000000000000004 0.30000000000000004 0
0.35000000000000003 0.30000000000000004 0
0.4 0.30000000000000004 0
0.45 0.30000000000000004 0
0.5 0.30000000000000004 0
0.55 0.30000000000000004 0
0.6000000000000001 0.30000000000000004 0
0.65 0.30000000000000004 0
0.7000000000000001 0.30000000000000004 0
0.75 0.30000000000000004 0
0.8 0.30000000000000004 0
0.8500000000000001 0.30000000000000004 0
0.9 0.30000000000000004 0
0.9500000000000001 0.30000000000000004 0
1 0.30000000000000004 0
0 0.35000000000000003 0
0.05 0.35000000000000003 0
0.1 0.35000000000000003 0
0.15000000000000002 0.35000000000000003 0
0.2 0.35000000000000003 0
0.25 0.35000000000000003 0
0.30000000000000004 0.35000000000000003 0
0.35000000000000003 0.35000000000000003 0
0.4 0.35000000000000003 0
0.45 0.35000000000000003 0
0.5 0.35000000000000003 0
0.55 0.35000000000000003 0
0.6000000000000001 0.35000000000000003 0
0.65 0.35000000000000003 0
0.7000000000000001 0.35000000000000003 0
0.75 0.35000000000000003 0
0.8 0.35000000000000003 0
0.8500000000000001 0.35000000000000003 0
0.9 0.35000000000000003 0
0.9500000000000001 0.35000000000000003 0
1 0.35000000000000003 0
0 0.4 0
0.05 0.4 0
0.1 0.4 0
0.15000000000000002 0.4 0
0.2 0.4 0
0.25 0.4 0
0.30000000000000004 0.4 0
0.35000000000000003 0.4 0
0.4 0.4 0
0.45 0.4 0
0.5 0.4 0
0.55 0.4 0
0.6000000000000001 0.4 0
0.65 0.4 0
0.7000000000000001 0.4 0
0.75 0.4 0
0.8 0.4 0
0.8500000000000001 0.4 0
0.9 0.4 0
0.9500000000000001 0.4 0
1 0.4 0
0 0.45 0
0.05 0.45 0
0.1 0.45 0
0.15000000000000002 0.45 0
0.2 0.45 0
0.25 0.45 0
0.30000000000000004 0.45 0
0.35000000000000003 0.45 0
0.4 0.45 0
0.45 0.45 0
0.5 0.45 0
0.55 0.45 0
0.6000000000000001 0.45 0
0.65 0.45 0
0.7000000000000001 0.45 0
0.75 0.45 0
0.8 0.45 0
0.8500000000000001 0.45 0
0.9 0.45 0
0.9500000000000001 0.45 0
1 0.45 0
0 0.5 0
0.05 0.5 0
0.1 0.5 0
0.15000000000000002 0.5 0
0.2 0.5 0
0.25 0.5 0
0.30000000000000004 0.5 0
0.35000000000000003 0.5 0
0.4 0.5 0
0.45 0.5 0
0.5 0.5 0
0.55 0.5 0
0.6000000000000001 0.5 0
0.65 0.5 0
0.7000000000000001 0.5 0
0.75 0.5 0
0.8 0.5 0
0.8500000000000001 0.5 0
0.9 0.5 0
0.9500000000000001 0.5 0
1 0.5 0
0 0.55 0
0.05 0.55 0
0.1 0.55 0
0.15000000000000002 0.55 0
0.2 0.55 0
0.25 0.55 0
0.30000000000000004 0.55 0
0.35000000000000003 0.55 0
0.4 0.55 0
0.45 0.55 0
0.5 0.55 0
0.55 0.55 0
0.6000000000000001 0.55 0
0.65 0.55 0
0.7000000000000001 0.55 0
0.75 0.55 0
0.8 0.55 0
0.8500000000000001 0.55 0
0.9 0.55 0
0.9500000000000001 0.55 0
1 0.55 0
0 0.6000000000000001 0
0.05 0.6000000000000001 0
0.1 0.6000000000000001 0
0.15000000000000002 0.6000000000000001 0
0.2 0.6000000000000001 0
0.25 0.6000000000000001 0
0.30000000000000004 0.6000000000000001 0
0.35000000000000003 0.6000000000000001 0
0.4 0.6000000000000001 0
0.45 0.6000000000000001 0
0.5 0.6000000000000001 0
0.55 0.6000000000000001 0
0.6000000000000001 0.6000000000000001 0
0.65 0.6000000000000001 0
0.7000000000000001 0.6000000000000001 0
0.75 0.6000000000000001 0
0.8 0.6000000000000001 0
0.8500000000000001 0.6000000000000001 0
0.9 0.6000000000000001 0
0.9500000000000001 0.6000000000000001 0
1 0.6000000000000001 0
0 0.65 0
0.05 0.65 0
0.1 0.65 0
0.15000000000000002 0.65 0
0.2 0.65 0
0.25 0.65 0
0.30000000000000004 0.65 0
0.35000000000000003 0.65 0
0.4 0.65 0
0.45 0.65 0
0.5 0.65 0
0.55 0.65 0
0.6000000000000001 0.65 0
0.65 0.65 0
0.7000000000000001 0.65 0
0.75 0.65 0
0.8 0.65 0
0.8500000000000001 0.65 0
0.9 0.65 0
0.9500000000000001 0.65 0
1 0.65 0
0 0.7000000000000001 0
0.05 0.7000000000000001 0
0.1 0.7000000000000001 0
0.15000000000000002 0.7000000000000001 0
0.2 0.7000000000000001 0
0.25 0.7000000000000001 0
0.30000000000000004 0.7000000000000001 0
0.35000000000000003 0.7000000000000001 0
0.4 0.7000000000000001 0
0.45 0.7000000000000001 0
0.5 0.7000000000000001 0
0.55 0.7000000000000001 0
0.6000000000000001 0.7000000000000001 0
0.65 0.7000000000000001 0
0.7000000000000001 0.7000000000000001 0
0.75 0.7000000000000001 0
0.8 0.7000000000000001 0
0.8500000000000001 0.7000000000000001 0
0.9 0.7000000000000001 0
0.9500000000000001 0.7000000000000001 0
1 0.7000000000000001 0
0 0.75 0
0.05 0.75 0
0.1 0.75 0
0.15000000000000002 0.75 0
0.2 0.75 0
0.25 0.75 0
0.30000000000000004 0.75 0
0.35000000000000003 0.75 0
0.4 0.75 0
0.45 0.75 0
0.5 0.75 0
0.55 0.75 0
0.6000000000000001 0.75 0
0.65 0.75 0
0.7000000000000001 0.75 0
0.75 0.75 0
0.8 0.75 0
0.8500000000000001 0.75 0
0.9 0.75 0
0.9500000000000001 0.75 0
1 0.75 0
0 0.8 0
0.05 0.8 0
0.1 0.8 0
0.15000000000000002 0.8 0
0.2 0.8 0
0.25 0.8 0
0.30000000000000004 0.8 0
0.35000000000000003 0.8 0
0.4 0.8 0
0.45 0.8 0
0.5 0.8 0
0.55 0.8 0
0.6000000000000001 0.8 0
0.65 0.8 0
0.7000000000000001 0.8 0
0.75 0.8 0
0.8 0.8 0
0.8500000000000001 0.8 0
0.9 0.8 0
0.9500000000000001 0.8 0
1 0.8 0
0 0.8500000000000001 0
0.05 0.8500000000000001 0
0.1 0.8500000000000001 0
0.15000000000000002 0.8500000000000001 0
0.2 0.8500000000000001 0
0.25 0.8500000000000001 0
0.30000000000000004 0.8500000000000001 0
0.35000000000000003 0.8500000000000001 0
0.4 0.8500000000000001 0
0.45 0.8500000000000001 0
0.5 0.8500000000000001 0
0.55 0.8500000000000001 0
0.6000000000000001 0.8500000000000001 0
0.65 0.8500000000000001 0
0.7000000000000001 0.8500000000000001 0
0.75 0.8500000000000001 0
0.8 0.8500000000000001 0
0.8500000000000001 0.8500000000000001 0
0.9 0.8500000000000001 0
0.9500000000000001 0.8500000000000001 0
1 0.8500000000000001 0
0 0.9 0
0.05 0.9 0
0.1 0.9 0
0.15000000000000002 0.9 0
0.2 0.9 0
0.25 0.9 0
0.30000000000000004 0.9 0
0.35000000000000003 0.9 0
0.4 0.9 0
0.45 0.9 0
0.5 0.9 0
0.55 0.9 0
0.6000000000000001 0.9 0
0.65 0.9 0
0.7000000000000001 0.9 0
0.75 0.9 0
0.8 0.9 0
0.8500000000000001 0.9 0
0.9 0.9 0
0.9500000000000001 0.9 0
1 0.9 0
0 0.9500000000000001 0
0.05 0.9500000000000001 0
0.1 0.9500000000000001 0
0.15000000000000002 0.9500000000000001 0
0.2 0.9500000000000001 0
0.25 0.9500000000000001 0
0.30000000000000004 0.9500000000000001 0
0.35000000000000003 0.9500000000000001 0
0.4 0.9500000000000001 0
0.45 0.9500000000000001 0
0.5 0.9500000000000001 0
0.55 0.9500000000000001 0
0.6000000000000001 0.9500000000000001 0
0.65 0.9500000000000001 0
0.7000000000000001 0.9500000000000001 0
0.75 0.9500000000000001 0
0.8 0.9500000000000001 0
0.8500000000000001 0.9500000000000001 0
0.9 0.9500000000000001 0
0.9500000000000001 0.9500000000000001 0
1 0.9500000000000001 0
0 1 0
0.05 1 0
0.1 1 0
0.15000000000000002 1 0
0.2 1 0
0.25 1 0
0.30000000000000004 1 0
0.35000000000000003 1 0
0.4 1 0
0.45 1 0
0.5 1 0
0.55 1 0
0.6000000000000001 1 0
0.65 1 0
0.7000000000000001 1 0
0.75 1 0
0.8 1 0
0.8500000000000001 1 0
0.9 1 0
0.9500000000000001 1 0
1 1 0
0 0 0.1
0.05 0 0.1
0.1 0 0.1
0.15000000000000002 0 0.1
0.2 0 0.1
0.25 0 0.1
0.30000000000000004 0 0.1
0.35000000000000003 0 0.1
0.4 0 0.1
0.45 0 0.1
0.5 0 0.1
0.55 0 0.1
0.6000000000000001 0 0.1
0.65 0 0.1
0.7000000000000001 0 0.1
0.75 0 0.1
0.8 0 0.1
0.8500000000000001 0 0.1
0.9 0 0.1
0.9500000000000001 0 0.1
1 0 0.1
0 0.05 0.1
0.05 0.05 0.1
0.1 0.05 0.1
0.15000000000000002 0.05 0.1
0.2 0.05 0.1
0.25 0.05 0.1
0.30000000000000004 0.05 0.1
0.35000000000000003 0.05 0.1
0.4 0.05 0.1
0.45 0.05 0.1
0.5 0.05 0.1
0.55 0.05 0.1
0.6000000000000001 0.05 0.1
0.65 0.05 0.1
0.7000000000000001 0.05 0.1
0.75 0.05 0.1
0.8 0.05 0.1
0.8500000000000001 0.05 0.1
0.9 0.05 0.1
0.9500000000000001 0.05 0.1
1 0.05 0.1
0 0.1 0.1
0.05 0.1 0.1
0.1 0.1 0.1
0.15000000000000002 0.1 0.1
0.2 0.1 0.1
0.25 0.1 0.1
0.30000000000000004 0.1 0.1
0.35000000000000003 0.1 0.1
0.4 0.1 0.1
0.45 0.1 0.1
[...]
POINT_DATA 22491
VECTORS displacement float
-0.0000020130461695400086 -0.000001769471947349894 -0.000003283483238429457
-0.0000004836807062172163 -0.0000027167827026101137 -0.0000037881001263614463
-0.0000006810380881879034 -0.0000020108246775456776 -0.000002837576243562579
-0.0000006950667816808133 -0.0000015873188334819925 -0.0000022656407657865767
-0.0000006942968804403196 -0.0000012671150850007207 -0.000001821912915782049
-0.000000691397147662074 -0.0000010026712873796635 -0.0000014487941958413828
-0.0000006890022589398981 -0.0000007721370814728905 -0.0000011193698714406461
-0.0000006873659992036568 -0.0000005633861427970472 -0.0000008185253747623029
-0.000000686352934909133 -0.00000036864502976628294 -0.000000536330252940227
-0.0000006858094535217457 -0.0000001823351431061346 -0.0000002654755690396546
-0.0000006856389166620059 0.00000000000000002312073303446954 0.000000000000000037017601489898304
-0.000000685809453522706 0.00000018233514315231263 0.0000002654755691135637
-0.0000006863529349110785 0.00000036864502981226614 0.0000005363302530137527
-0.000000687365999206627 0.0000005633861428427039 0.0000008185253748351766
-0.0000006890022589439382 0.000000772137081518099 0.00000111936987151261
-0.0000006913971476672908 0.000001002671287424305 0.0000014487941959121745
-0.0000006942968804467931 0.0000012671150850447283 0.0000018219129158514337
-0.0000006950667816886306 0.0000015873188335254296 0.0000022656407658544503
-0.0000006810380881970375 0.000002010824677588957 0.0000028375762436292295
-0.0000004836807062252371 0.0000027167827026555714 0.0000037881001264300077
-0.0000020130461695679764 0.0000017694719473751885 0.00000328348323847746
-0.0000037308252510059637 -0.00000030322447161773187 -0.000005876049560158764
-0.0000007157407566878685 -0.0000005543218660357307 -0.000006268809793937356
-0.000001080534678276361 -0.0000004977913805028029 -0.000004578005839547793
-0.0000010911147199441848 -0.0000004409472219647394 -0.0000036062386226364665
-0.0000010811650075781 -0.00000037963461344341087 -0.000002871600241479554
-0.0000010705366920478964 -0.00000031610992180344656 -0.0000022673656645314683
-0.0000010626684688973283 -0.00000025211252198093026 -0.0000017429450600182223
-0.000001057338604217887 -0.0000001884203484272782 -0.0000012699905324798144
-0.000001053972377042837 -0.00000012524013591476693 -0.0000008301992532171054
-0.0000010521231937722552 -0.00000006249889933396717 -0.00000041038740647218023
-0.0000010515342569000862 0.000000000000000004055691977443916 0.0000000000000000436946541021958
-0.0000010521231937740052 0.0000000624988993420498 0.0000004103874065594679
-0.0000010539723770463395 0.00000012524013592277798 0.0000008301992533041058
-0.0000010573386042232572 0.00000018842034843515193 0.0000012699905325663363
-0.0000010626684689046163 0.0000002521125219886061 0.0000017429450601041068
-0.0000010705366920572858 0.0000003161099218108415 0.0000022673656646166146
-0.0000010811650075897498 0.00000037963461345040895 0.0000028716002415639775
-0.000001091114719958173 0.0000004409472219711457 0.000003606238622720542
-0.0000010805346782926654 0.0000004977913805082956 0.0000045780058396327604
-0.0000007157407567021437 0.0000005543218660396094 0.000006268809794029784
-0.000003730825251055202 0.00000030322447161871956 0.0000058760495602321585
-0.0000037986776025596935 -0.00000009033143743801066 -0.000006037302244077308
-0.000000748285476822946 -0.00000018496559211588257 -0.000006497120091137106
-0.0000010614570172975503 -0.00000019752722851802785 -0.000004823453452400259
-0.0000010392250961598323 -0.0000001996086152473304 -0.000003841130580796472
-0.0000010112642172392443 -0.00000018819899963200477 -0.0000030809732215927
-0.0000009903974982017225 -0.0000001669077908776 -0.000002444701596119318
-0.000000976428105216686 -0.00000013910350260460025 -0.000001885687500594637
-0.0000009673600942786924 -0.00000010716005579475398 -0.0000013772381665768636
-0.0000009617361633098561 -0.00000007265519086289842 -0.0000009017055824434923
-0.000000958668671395372 -0.00000003666782133065532 -0.00000044612982837711267
-0.0000009576939052059588 0.000000000000000004096281449623405 0.00000000000000003536692949337798
-0.0000009586686713968766 0.00000003666782133881354 0.00000044612982844779513
-0.0000009617361633128946 0.00000007265519087092608 0.0000009017055825140332
-0.000000967360094283349 0.00000010716005580255688 0.0000013772381666471606
-0.0000009764281052230192 0.00000013910350261207238 0.0000018856875006646187
-0.000000990397498209825 0.0000001669077908846024 0.000002444701596188999
-0.0000010112642172493035 0.0000001881989996383447 0.0000030809732216622167
-0.000001039225096171951 0.00000019960861525271639 0.000003841130580866238
-0.0000010614570173117653 0.00000019752722852201526 0.0000048234534524714685
-0.000000748285476835501 0.0000001849655921175277 0.000006497120091215595
-0.000003798677602601983 0.00000009033143743758299 0.000006037302244141338
-0.000003834655766777695 0.00000013401261328965443 -0.000006126552087657341
-0.0000007590615181062007 0.00000021938160795336976 -0.000006680874909027053
-0.0000010233694186470214 0.00000015005351611751046 -0.0000050376310700205635
-0.0000009661092648078292 0.00000009464822011111429 -0.00000405848665150224
-0.0000009158785535968292 0.000000055424928124673865 -0.0000032829767423634007
-0.0000008809587244930791 0.000000029553939421258305 -0.0000026211678319889604
-0.0000008580714317869714 0.000000013654586283116331 -0.000002030922294109916
-0.0000008433427536982442 0.0000000048299825126037025 -0.0000014880656036161759
-0.0000008342397404269149 0.0000000007858006123415601 -0.0000009763566142354926
-0.0000008292805343291639 -0.000000000310042161782318 -0.0000004836608140748456
-0.0000008277050994661411 0.0000000000000000025910521559970552 0.000000000000000030014345207615094
-0.0000008292805343304709 0.0000000003100421669107784 0.0000004836608141348474
-0.0000008342397404295683 -0.0000000007858006073502064 0.0000009763566142954032
-0.0000008433427537022673 -0.00000000482998250785471 0.0000014880656036759374
-0.000000858071431792445 -0.000000013654586278731462 0.000002030922294169521
-0.0000008809587245001298 -0.00000002955393941740455 0.0000026211678320484234
-0.0000009158785536055475 -0.000000055424928121549796 0.0000032829767424228853
-0.0000009661092648184353 -0.00000009464822010900522 0.0000040584866515621175
-0.0000010233694186595007 -0.00000015005351611690666 0.000005037631070081846
-0.0000007590615181173569 -0.00000021938160795523315 0.000006680874909094843
-0.000003834655766814245 -0.00000013401261329190878 0.000006126552087713252
-0.000003817219660144067 0.00000031649152683371296 -0.000006116326049222989
-0.0000007543823564797944 0.0000005504251741451359 -0.0000067451714354244855
-0.0000009757668326285537 0.0000004403058209202824 -0.0000051510315671649175
-0.0000008872023722903524 0.0000003459529339851948 -0.000004190609747274973
-0.0000008144892414709208 0.00000026754440765712437 -0.0000034156195086833913
-0.0000007638180129943933 0.00000020322696142733986 -0.000002742809023711276
-0.0000007300798748219949 0.00000015022418426545326 -0.0000021343435600573353
-0.0000007080400940988705 0.00000010575438645581971 -0.000001568728658352779
-0.0000006942547502063798 0.00000006732071979826572 -0.000001031460278217949
-0.0000006866835268712831 0.000000032727954108592376 -0.0000005115844158731547
-0.0000006842684846556969 0.0000000000000000013519411307618505 0.000000000000000025274211779577837
-0.0000006866835268723938 -0.000000032727954105936266 0.0000005115844159236821
-0.0000006942547502086239 -0.00000006732071979575802 0.0000010314602782684223
-0.0000007080400941022971 -0.00000010575438645356349 0.0000015687286584031653
-0.000000730079874826654 -0.00000015022418426357798 0.0000021343435601076275
-0.0000007638180130003973 -0.0000002032269614259961 0.0000027428090237615195
-0.0000008144892414784008 -0.0000002675444076565534 0.000003415619508733721
-0.0000008872023722994705 -0.00000034595293398566487 0.0000041906097473256935
-0.00000097576683263933 -0.0000004403058209222963 0.000005151031567216898
-0.0000007543823564894878 -0.0000005504251741496569 0.000006745171435482085
-0.000003817219660175144 -0.00000031649152683733926 0.000006116326049270868
-0.0000037572642267350082 0.0000004675870141002966 -0.000006029916783985744
-0.000000736727056270037 0.0000008249402969545917 -0.000006719435598416039
-0.0000009191042558765368 0.0000006826032209443782 -0.000005187006583705815
-0.0000008040794624938541 0.0000005581739279394471 -0.000004255488115872763
-0.0000007107389227635223 0.00000044893454312163684 -0.0000034917231859163098
-0.000000644397563742768 0.00000035339487474132346 -0.00000281858805140233
-0.0000005991072014920835 0.0000002693615700689382 -0.000002202071348153508
-0.0000005688703551039852 0.00000019437694701378598 -0.0000016232619890993943
-0.0000005496399788283731 0.00000012600728058432577 -0.000001069463032821389
-0.0000005389601799423345 0.00000006194417820577141 -0.0000005310552029406188
-0.0000005355346912322118 0.00000000000000000040579818932926223 0.000000000000000020806177906393486
-0.0000005389601799432598 -0.00000006194417820500659 0.0000005310552029822152
-0.0000005496399788302447 -0.0000001260072805837135 0.0000010694630328629443
-0.0000005688703551068246 -0.00000019437694701343764 0.0000016232619891408995
-0.0000005991072014959795 -0.00000026936157006896553 0.000002202071348194963
-0.0000006443975637477649 -0.000000353394874741906 0.000002818588051443765
-0.0000007107389227697941 -0.0000004489345431229777 0.0000034917231859578415
-0.0000008040794625014763 -0.0000005581739279418415 0.000004255488115914638
-0.000000919104255885571 -0.0000006826032209483225 0.0000051870065837487554
-0.0000007367270562781569 -0.0000008249402969610637 0.0000067194355984637185
-0.00000375726422676078 -0.00000046758701410493493 0.000006029916784025594
-0.000003664088523986495 0.0000005945205371287431 -0.000005884395417817822
-0.0000007090123728724199 0.0000010558683073452314 -0.00000662576836235996
-0.0000008542509547706087 0.0000008868424736292873 -0.000005165264183640396
-0.000000716712220310494 0.0000007378888326252188 -0.000004269702737776195
-0.0000006050307501743718 0.0000006035760319007005 -0.0000035246049147106826
-0.0000005239333255097385 0.0000004823252544115901 -0.0000028587727762995913
-0.00000046718622400676976 0.00000037229444747084576 -0.0000022417590738216346
-0.00000042847769333462543 0.00000027132966222870856 -0.0000016570807454653202
-0.0000004034486073940855 0.0000001771480903715982 -0.0000010938251831426
-0.000000389393857278471 0.00000008745790617986116 -0.0000005437596443008399
-0.0000003848609751837684 -0.00000000000000000029889704329960184 0.000000000000000016482156399121198
-0.0000003893938572792146 -0.00000008745790618050631 0.0000005437596443337916
-0.00000040344860739557747 -0.00000017714809037238914 0.0000010938251831755226
-0.00000042847769333689447 -0.0000002713296622297565 0.0000016570807454982105
-0.000000467186224009879 -0.0000003722944474722917 0.000002241759073854491
-0.0000005239333255137337 -0.0000004823252544135766 0.000002858772776332444
-0.0000006050307501793807 -0.0000006035760319034401 0.000003524604914743633
-0.0000007167122203166383 -0.0000007378888326290116 0.000004269702737809418
-0.0000008542509547778602 -0.0000008868424736346159 0.000005165264183674469
-0.0000007090123728789377 -0.0000010558683073531709 0.000006625768362397849
-0.000003664088524006981 -0.000000594520537134134 0.000005884395417849618
-0.0000035448744491770147 0.0000007025250338231449 -0.000005692541218602467
-0.0000006735376127204325 0.0000012525361844770232 -0.000006480363106950304
-0.0000007822405942877766 0.0000010607307434895042 -0.000005100583699863364
-0.0000006249882678865443 0.0000008909801217115215 -0.000004246391558504865
-0.0000004969295141244703 0.0000007356160486605103 -0.000003525323134775312
-0.00000040216194008251847 0.0000005927889960735598 -0.000002872283746074494
-0.0000003344042480322478 0.0000004608050903074648 -0.000002260284155030016
-0.0000002873014462484964 0.0000003377140377513942 -0.000001675175258110425
-0.00000025639378112826163 0.00000022137437908058084 -0.000001107789922288469
-0.0000002388658864723727 0.00000010955581104993574 -0.0000005512938628379133
-0.00000023318494052122702 -0.0000000000000000008042976012147442 0.00000000000000001224238801385894
-0.00000023886588647292605 -0.00000010955581105159354 0.0000005512938628623912
-0.0000002563937811293726 -0.00000022137437908238442 0.0000011077899223129286
-0.0000002873014462501895 -0.0000003377140377534586 0.0000016751752581348677
-0.00000033440424803458 -0.00000046080509030991335 0.0000022602841550544346
-0.0000004021619400855213 -0.0000005927889960765578 0.000002872283746098911
-0.000000496929514128225 -0.0000007356160486642546 0.000003525323134799805
-0.0000006249882678911306 -0.0000008909801217163108 0.000004246391558529573
-0.0000007822405942932251 -0.0000010607307434958227 0.000005100583699888715
-0.0000006735376127253097 -0.0000012525361844859808 0.00000648036310697851
-0.0000035448744491922838 -0.0000007025250338290697 0.000005692541218626208
-0.0000034051522721620053 0.0000007953344348805906 -0.000005463998671260728
-0.0000006320085429529326 0.000001421550450144901 -0.000006295407826655671
-0.0000007039409922337396 0.000001209850675513663 -0.000005004176038097647
-0.0000005287714004022853 0.0000010219737917225653 -0.000004195801877540896
-0.0000003857503475820687 0.000000848500338193703 -0.000003502796813667177
-0.00000027822544519223706 0.0000006872703140397479 -0.0000028665253154518472
-0.00000019994972119683943 0.0000005366046578581674 -0.000002263494711885821
-0.00000014466351926912577 0.0000003946507728493063 -0.0000016818646407999015
-0.00000010793458835607265 0.0000002593575433618707 -0.000001114198317913963
-0.00000008693123209169486 0.00000012855151204906256 -0.0000005550657720726392
-0.00000008009545099850072 -0.0000000000000000011440954712893494 0.00000000000000000805958036380086
-0.00000008693123209206369 -0.00000012855151205139918 0.000000555065772088755
-0.00000010793458835681064 -0.0000002593575433643543 0.0000011141983179300648
-0.00000014466351927024748 -0.0000003946507728520495 0.0000016818646408159905
-0.0000001999497211983808 -0.0000005366046578612848 0.0000022634947119018953
-0.00000027822544519422393 -0.0000006872703140434018 0.000002866525315467926
-0.00000038575034758454216 -0.0000008485003381981032 0.00000350279681368331
-0.0000005287714004053299 -0.0000010219737917280395 0.000004195801877557172
-0.0000007039409922373668 -0.0000012098506755206783 0.0000050041760381143435
-0.0000006320085429561434 -0.0000014215504501545603 0.0000062954078266742485
-0.000003405152272172078 -0.0000007953344348868837 0.000005463998671276404
-0.0000032493404627365726 0.0000008756708996949741 -0.000005206331329863074
-0.0000005856613068090595 0.0000015676801633014442 -0.00000608065395551563
-0.0000006199346822498968 0.0000013382439046664053 -0.000004885080364293818
-0.0000004277857492315406 0.0000011342459263816055 -0.0000041263319257507925
-0.00000027063090421577474 0.0000009449270612219186 -0.0000034644883672044313
-0.0000001509419723066471 0.000000767826265222609 -0.000002847820418913461
-0.00000006251743744869653 0.0000006011896093529715 -0.0000022564705942691813
0.000000000751200815425581 0.000000443168040388657 -0.0000016809508809500912
0.00000004320768237951876 0.0000002917369697169876 -0.0000011155743835185264
0.0000000676507596471923 0.00000014475083492891578 -0.0000005563329233550842
0.00000007563290099123773 -0.000000000000000001338492009102411 0.0000000000000000039089624907698794
0.00000006765075964701117 -0.00000014475083493164074 0.0000005563329233628956
0.000000043207682379168876 -0.0000002917369697198561 0.0000011155743835263324
0.000000000751200814883894 -0.0000004431680403917828 0.0000016809508809578964
-0.0000000625174374494364 -0.0000006011896093564738 0.0000022564705942769774
-0.00000015094197230760457 -0.0000007678262652266684 0.0000028478204189212646
-0.000000270630904216996 -0.0000009449270612267234 0.0000034644883672122566
-0.0000004277857492330071 -0.0000011342459263874289 0.0000041263319257586835
-0.0000006199346822516579 -0.0000013382439046738005 0.000004885080364301921
-0.0000005856613068106255 -0.000001567680163311489 0.000006080653955524631
-0.000003249340462741457 -0.0000008756708997014684 0.000005206331329870678
-0.0000030811751719497218 0.000000945536377868725 -0.000004925778729903422
-0.000000535382134728072 0.0000016943929998187672 -0.0000058445206156696
-0.000000530482545222106 0.0000014488264993313405 -0.000004751211924527534
-0.00000032151495736517513 0.0000012302699093252711 -0.000004045407926556504
-0.00000015047674415769432 0.0000010269458629247173 -0.000003417071140448093
-0.00000001884617619332333 0.0000008360972632546366 -0.0000028218875698560388
0.00000007955895678333701 0.000000655816966598447 -0.000002243852338275689
0.00000015069463768216325 0.0000004841718227202192 -0.0000016759347374259498
0.0000001988068643680729 0.00000031909789652980236 -0.000001114255322999872
0.00000022665139300288516 0.00000015844059726172686 -0.0000005562636815028475
0.000000235767989415124 -0.0000000000000000013962734206762994 -0.00000000000000000022826548792209187
0.00000022665139300289728 -0.0000001584405972645674 0.0000005562636815023911
0.00000019880686436809847 -0.0000003190978965327905 0.0000011142553229994218
0.00000015069463768219639 -0.0000004841718227234585 0.0000016759347374254962
0.0000000795589567833781 -0.0000006558169666020725 0.000002243852338275228
-0.000000018846176193257802 -0.0000008360972632587982 0.000002821887569855578
-0.00000015047674415761142 -0.00000102694586292961 0.000003417071140447644
-0.00000032151495736508105 -0.000001230269909331228 0.000004045407926556034
-0.0000005304825452219833 -0.0000014488264993388901 0.0000047512119245270535
-0.000000535382134727991 -0.000001694392999828939 0.0000058445206156690515
-0.0000030811751719494147 -0.0000009455363778752871 0.000004925778729902956
-0.00000290407624755676 0.0000010063842440150406 -0.000004627860357027011
-0.0000004817899650528273 0.000001804161165735308 -0.000005594989764133829
-0.0000004354980729195599 0.000001543644511480278 -0.000004610224394561663
-0.00000020910621372479828 0.0000013118060928806298 -0.000003960245404949592
-0.000000023863855166762167 0.0000010960790840396368 -0.0000033670456578296273
0.0000001198652342311671 0.0000008933754483755727 -0.000002794309715531939
0.00000022830347532403932 0.0000007015400928160141 -0.0000022301798888731395
0.0000003072995038687744 0.0000005184643556421184 -0.0000016702471340989597
0.00000036103762679288925 0.0000003419809135987643 -0.0000011125347017589927
0.00000039225596406397086 0.00000016989277152886714 -0.0000005560055144337305
0.0000004024962221584658 -0.0000000000000000013255202482426122 -0.0000000000000000043623001188177445
0.00000039225596406417044 -0.00000016989277153156232 0.000000556005514425009
0.0000003610376267932942 -0.0000003419809136016084 0.0000011125347017502778
0.000000307299503869387 -0.0000005184643556452217 0.000001670247134090252
0.00000022830347532487542 -0.0000007015400928194938 0.000002230179888864429
0.00000011986523423225458 -0.000000893375448379596 0.0000027943097155232235
-0.0000000238638551654017 -0.0000010960790840444285 0.0000033670456578208965
-0.00000020910621372315205 -0.0000013118060928864574 0.000003960245404940769
-0.00000043549807291759153 -0.0000015436445114876556 0.000004610224394552591
-0.000000481789965051026 -0.0000018041611657453067 0.000005594989764123732
-0.0000029040762475513136 -0.0000010063842440215168 0.000004627860357018489
-0.000002721516785416746 0.0000010592060814008815 -0.000004317939814612038
-0.00000042527639450119247 0.0000018986074512217335 -0.000005340509841125916
-0.0000003344864830772264 0.0000016240078872886656 -0.000004470376894247531
-0.0000000892437124243699 0.0000013800313333169531 -0.0000038786195241472725